# ODT 1.0
# Table Start
# Title: mmArchive Data Table, Sun Feb 01 15:53:41 UTC 2026
# Columns: {Oxs_CGEvolve:evolver:Max mxHxm} {Oxs_CGEvolve:evolver:Total energy} {Oxs_CGEvolve:evolver:Delta E} {Oxs_CGEvolve:evolver:Bracket count} {Oxs_CGEvolve:evolver:Line min count} {Oxs_CGEvolve:evolver:Conjugate cycle count} {Oxs_CGEvolve:evolver:Cycle count} {Oxs_CGEvolve:evolver:Cycle sub count} {Oxs_CGEvolve:evolver:Energy calc count} Oxs_UniformExchange:exchange:Energy {Oxs_UniformExchange:exchange:Max Spin Ang} {Oxs_UniformExchange:exchange:Stage Max Spin Ang} {Oxs_UniformExchange:exchange:Run Max Spin Ang} Oxs_DMI_T:dmi:Energy Oxs_UniaxialAnisotropy:uniaxialanisotropy:Energy Oxs_FixedZeeman:zeeman:Energy Oxs_MinDriver::Iteration {Oxs_MinDriver::Stage iteration} Oxs_MinDriver::Stage Oxs_MinDriver::mx    Oxs_MinDriver::my    Oxs_MinDriver::mz   
# Units:                 A/m                                 J                                J                                 {}                                   {}                                        {}                                      {}                                   {}                                      {}                                     J                                      deg                                            deg                                              deg                                J                                  J                                       J                          {}                           {}                         {}                 {}                   {}                   {}           
                  0.097477679746300006              -1.2136061860999999e-16              -4.9303806576300002e-32               1914547                              837998                                    7024                                    1876616                              51                                      2752546                               2.6516225595699999e-16                     20.081027349199999                             180                                              180                               -5.5253348484499997e-16                1.66010610277e-16                      0                           2720997                      2720997                    0                   -2.0601588039399998e-06  0.035246567472299997 -2.5115411111300001e-10
# Table End
